
    -----------------------------------------------------------------------
          Psi4: An Open-Source Ab Initio Electronic Structure Package
                               Psi4 1.10 release

                         Git: Rev {} zzzzzzz 


    D. G. A. Smith, L. A. Burns, A. C. Simmonett, R. M. Parrish,
    M. C. Schieber, R. Galvelis, P. Kraus, H. Kruse, R. Di Remigio,
    A. Alenaizan, A. M. James, S. Lehtola, J. P. Misiewicz, M. Scheurer,
    R. A. Shaw, J. B. Schriber, Y. Xie, Z. L. Glick, D. A. Sirianni,
    J. S. O'Brien, J. M. Waldrop, A. Kumar, E. G. Hohenstein,
    B. P. Pritchard, B. R. Brooks, H. F. Schaefer III, A. Yu. Sokolov,
    K. Patkowski, A. E. DePrince III, U. Bozkaya, R. A. King,
    F. A. Evangelista, J. M. Turney, T. D. Crawford, C. D. Sherrill,
    J. Chem. Phys. 152(18) 184108 (2020). https://doi.org/10.1063/5.0006002

                            Additional Code Authors
    E. T. Seidl, C. L. Janssen, E. F. Valeev, M. L. Leininger,
    J. F. Gonthier, R. M. Richard, H. R. McAlexander, M. Saitow, X. Wang,
    P. Verma, M. H. Lechner, A. Jiang, S. Behnle, A. G. Heide,
    M. F. Herbst, D. L. Poole, T. Győri, E. C. Mitchell, J. P. Pederson,
    and A. M. Wallace

             Previous Authors, Complete List of Code Contributors,
                       and Citations for Specific Modules
    https://github.com/psi4/psi4/blob/master/codemeta.json
    https://github.com/psi4/psi4/graphs/contributors
    https://psicode.org/psi4manual/master/introduction.html#citing-psifour

    -----------------------------------------------------------------------


    Psi4 started on: Friday, 15 May 2026 07:47PM

    Process ID: 3251780
    Host:       master
    PSIDATADIR: /public/gkxiao/software/miniforge3/envs/psi4/share/psi4
    Memory:     1.0 GiB
    Threads:    16
    
Scratch directory: /tmp/
  PCM or DDX continuum solvation does not make use of molecular symmetry: further calculations in C1 point group.
   => Libint2 <=

    Primary   basis highest AM E, G, H:  7, 6, 3
    Auxiliary basis highest AM E, G, H:  7, 7, 4
    Onebody   basis highest AM E, G, H:  -, -, -
    Solid Harmonics ordering:            Gaussian

*** tstart() called on master
*** at Fri May 15 19:47:17 2026

   => Loading Basis Set <=

    Name: DEF2-MTZVPP
    Role: ORBITAL
    Keyword: BASIS
    atoms 1, 3-4, 6-9, 11, 13, 15 entry C          line   106 file /public/gkxiao/software/miniforge3/envs/psi4/share/psi4/basis/def2-mtzvpp.gbs 
    atoms 2, 14                   entry N          line   135 file /public/gkxiao/software/miniforge3/envs/psi4/share/psi4/basis/def2-mtzvpp.gbs 
    atoms 5                       entry O          line   166 file /public/gkxiao/software/miniforge3/envs/psi4/share/psi4/basis/def2-mtzvpp.gbs 
    atoms 10, 12                  entry F          line   197 file /public/gkxiao/software/miniforge3/envs/psi4/share/psi4/basis/def2-mtzvpp.gbs 
    atoms 16-21                   entry H          line    10 file /public/gkxiao/software/miniforge3/envs/psi4/share/psi4/basis/def2-mtzvpp.gbs 

   => R2SCAN3C: Empirical Dispersion <=

    Grimme's -D4 (BJ-damping) Dispersion Correction with ATM
    Caldeweyher, E.; Ehlert, S.; Hansen, A.; Neugebauer, H.; Spicher, S.; Bannwarth, C.; Grimmme, S., J. Chem. Phys. 150, 154122 (2019)

        a1 =       0.420000
        a2 =       5.650000
       alp =      16.000000
        s6 =       1.000000
        s8 =       0.000000
        s9 =       2.000000
        ga =       2.000000
        gc =       1.000000
        wf =       6.000000


         ---------------------------------------------------------
                                   SCF
               by Justin Turney, Rob Parrish, Andy Simmonett
                          and Daniel G. A. Smith
                              RKS Reference
                       16 Threads,   1024 MiB Core
         ---------------------------------------------------------

  ==> Geometry <==

    Molecular point group: c1
    Full point group: C1

    Geometry (in Angstrom), charge = 0, multiplicity = 1:

       Center              X                  Y                   Z               Mass       
    ------------   -----------------  -----------------  -----------------  -----------------
         C           -1.888100000000    -2.549700000000    -2.383400000000    12.000000000000
         N           -0.719800000000    -2.783300000000    -3.003300000000    14.003074004430
         C            0.342300000000    -2.137400000000    -2.548100000000    12.000000000000
         C            0.232400000000    -1.252200000000    -1.462600000000    12.000000000000
         O            1.383900000000    -0.649000000000    -1.052200000000    15.994914619570
         C            1.313100000000     0.314900000000    -0.047600000000    12.000000000000
         C            1.911600000000     0.032400000000     1.169200000000    12.000000000000
         C            1.932000000000     1.010000000000     2.161000000000    12.000000000000
         C            1.352900000000     2.241000000000     1.916900000000    12.000000000000
         F            1.360400000000     3.196800000000     2.860500000000    18.998403162730
         C            0.757000000000     2.506900000000     0.687300000000    12.000000000000
         F            0.205300000000     3.711400000000     0.475000000000    18.998403162730
         C            0.734000000000     1.551000000000    -0.310100000000    12.000000000000
         N           -0.907600000000    -1.013600000000    -0.844800000000    14.003074004430
         C           -1.977400000000    -1.672300000000    -1.315200000000    12.000000000000
         H           -2.763700000000    -3.077300000000    -2.754800000000     1.007825032230
         H            1.304100000000    -2.305900000000    -3.029800000000     1.007825032230
         H            2.357400000000    -0.941800000000     1.335300000000     1.007825032230
         H            2.393400000000     0.826700000000     3.125600000000     1.007825032230
         H            0.266100000000     1.769700000000    -1.263300000000     1.007825032230
         H           -2.926000000000    -1.485600000000    -0.814300000000     1.007825032230

  Running in c1 symmetry.

  Rotational constants: A =      0.04701  B =      0.00955  C =      0.00916 [cm^-1]
  Rotational constants: A =   1409.23177  B =    286.36306  C =    274.50722 [MHz]
  Nuclear repulsion =  920.113727727218361

  Charge       = 0
  Multiplicity = 1
  Electrons    = 106
  Nalpha       = 53
  Nbeta        = 53

  ==> Algorithm <==

  SCF Algorithm Type is DF.
  DIIS enabled.
  MOM disabled.
  Fractional occupation disabled.
  Guess Type is SAD.
  Energy threshold   = 1.00e-06
  Density threshold  = 1.00e-06
  Integral threshold = 1.00e-12

  ==> Primary Basis <==

  Basis Set: DEF2-MTZVPP
    Blend: DEF2-MTZVPP
    Number of shells: 158
    Number of basis functions: 340
    Number of Cartesian functions: 360
    Spherical Harmonics?: true
    Max angular momentum: 2

  ==> DFT Potential <==

   => LibXC <=

    Version 7.0.0
    S. Lehtola, C. Steigemann, M. J.T. Oliveira, and M. A.L. Marques.,  SoftwareX 7, 1–5 (2018) (10.1016/j.softx.2017.11.002)

   => Composite Functional: R2SCAN3C <= 

    r2SCAN Meta-GGA based 3C composite method with a TZ basis set, gCP and D4  (10.1063/5.0040021)
     S. Grimme,  A. Hansen,  S. Ehlert, J.-M. Mewes J. Chem. Phys. 154, 064103, 2021


    Deriv               =              1
    GGA                 =           TRUE
    Meta                =           TRUE

    Exchange Hybrid     =          FALSE
    MP2 Hybrid          =          FALSE

   => Exchange Functionals <=

    1.0000   XC_MGGA_X_R2SCAN

   => Correlation Functionals <=

    1.0000   XC_MGGA_C_R2SCAN

   => LibXC Density Thresholds  <==

    XC_MGGA_C_R2SCAN:  1.00E-15 
    XC_MGGA_X_R2SCAN:  1.00E-11 

   => Molecular Quadrature <=

    Radial Scheme          =       TREUTLER
    Pruning Scheme         =           NONE
    Nuclear Scheme         =       TREUTLER

    Blocking Scheme        =         OCTREE
    BS radius alpha        =              1
    Pruning alpha          =              1
    Radial Points          =             75
    Spherical Points       =            302
    Total Points           =         439804
    Total Blocks           =           3219
    Max Points             =            256
    Max Functions          =            277
    Weights Tolerance      =       1.00E-15

   => Loading Basis Set <=

    Name: (DEF2-MTZVPP AUX)
    Role: JKFIT
    Keyword: DF_BASIS_SCF
    atoms 1, 3-4, 6-9, 11, 13, 15 entry C          line   198 file /public/gkxiao/software/miniforge3/envs/psi4/share/psi4/basis/def2-universal-jkfit.gbs 
    atoms 2, 14                   entry N          line   258 file /public/gkxiao/software/miniforge3/envs/psi4/share/psi4/basis/def2-universal-jkfit.gbs 
    atoms 5                       entry O          line   318 file /public/gkxiao/software/miniforge3/envs/psi4/share/psi4/basis/def2-universal-jkfit.gbs 
    atoms 10, 12                  entry F          line   378 file /public/gkxiao/software/miniforge3/envs/psi4/share/psi4/basis/def2-universal-jkfit.gbs 
    atoms 16-21                   entry H          line    18 file /public/gkxiao/software/miniforge3/envs/psi4/share/psi4/basis/def2-universal-jkfit.gbs 

  +----------------------------------------------------------------+
  |                                                                |
  |                        888      888 Y8b    d8Y                 |
  |                        888      888  Y8b  d8Y                  |
  |                        888      888   Y8888Y                   |
  |                    .d88888  .d88888    Y88Y                    |
  |                   d88  888 d88  888    d88b                    |
  |                   888  888 888  888   d8888b                   |
  |                   Y88b 888 Y88b 888  d8Y  Y8b                  |
  |                     Y88888   Y88888 d8Y    Y8b                 |
  |                                                                |
  |                 https://ddsolvation.github.io/ddX/             |
  |                         Version: 0.7.0                         |
  |                                                                |
  +----------------------------------------------------------------+
    enable_fmm              = True
    eta                     = 0.1
    fmm_local_lmax          = 6
    fmm_multipole_lmax      = 9
    incore                  = False
    jacobi_n_diis           = 20
    lmax                    = 9
    logfile                 = 
    maxiter                 = 100
    n_lebedev               = 302
    n_proc                  = 16
    shift                   = 0.0
    solvent_kappa           = 0.0
    solvent_epsilon         = 78.3553
    solvent_epsilon_optical = 1.776
    tol                     = 1e-08

    DDX numerical integration setup:

    dft_block_scheme     = ATOMIC
    dft_nuclear_scheme   = BECKE
    dft_pruning_scheme   = ROBUST
    dft_radial_points    = 35
    dft_radial_scheme    = BECKE
    dft_spherical_points = 110

    Cavity sphere setup (in Angstrom):

    Charge       X            Y            Z          Radius  
    ------   ----------   ----------   ----------   ----------
      6.00    -1.888100    -2.549700    -2.383400     2.118050
      7.00    -0.719800    -2.783300    -3.003300     2.013000
      6.00     0.342300    -2.137400    -2.548100     2.118050
      6.00     0.232400    -1.252200    -1.462600     2.118050
      8.00     1.383900    -0.649000    -1.052200     1.925000
      6.00     1.313100     0.314900    -0.047600     2.118050
      6.00     1.911600     0.032400     1.169200     2.118050
      6.00     1.932000     1.010000     2.161000     2.118050
      6.00     1.352900     2.241000     1.916900     2.118050
      9.00     1.360400     3.196800     2.860500     1.850200
      6.00     0.757000     2.506900     0.687300     2.118050
      9.00     0.205300     3.711400     0.475000     1.850200
      6.00     0.734000     1.551000    -0.310100     2.118050
      7.00    -0.907600    -1.013600    -0.844800     2.013000
      6.00    -1.977400    -1.672300    -1.315200     2.118050
      1.00    -2.763700    -3.077300    -2.754800     1.587300
      1.00     1.304100    -2.305900    -3.029800     1.587300
      1.00     2.357400    -0.941800     1.335300     1.587300
      1.00     2.393400     0.826700     3.125600     1.587300
      1.00     0.266100     1.769700    -1.263300     1.587300
      1.00    -2.926000    -1.485600    -0.814300     1.587300

    Cavity sphere setup (in Bohr):

    Charge       X            Y            Z          Radius  
    ------   ----------   ----------   ----------   ----------
      6.00    -3.567992    -4.818235    -4.503973     4.002534
      7.00    -1.360225    -5.259675    -5.675414     3.804019
      6.00     0.646853    -4.039101    -4.815211     4.002534
      6.00     0.439172    -2.366315    -2.763913     4.002534
      8.00     2.615192    -1.226432    -1.988370     3.637723
      6.00     2.481399     0.595075    -0.089951     4.002534
      6.00     3.612400     0.061227     2.209468     4.002534
      6.00     3.650951     1.908623     4.083698     4.002534
      6.00     2.556610     4.234876     3.622416     4.002534
      9.00     2.570783     6.041076     5.405562     3.496371
      6.00     1.430523     4.737354     1.298809     4.002534
      9.00     0.387961     7.013530     0.897620     3.496371
      6.00     1.387059     2.930965    -0.586004     4.002534
      7.00    -1.715115    -1.915426    -1.596441     3.804019
      6.00    -3.736744    -3.160189    -2.485368     4.002534
      1.00    -5.222636    -5.815254    -5.205818     2.999562
      1.00     2.464392    -4.357519    -5.725492     2.999562
      1.00     4.454840    -1.779744     2.523351     2.999562
      1.00     4.522871     1.562237     5.906528     2.999562
      1.00     0.502856     3.344248    -2.387291     2.999562
      1.00    -5.529339    -2.807377    -1.538804     2.999562

  ==> Integral Setup <==

  ==> DiskDFJK: Density-Fitted J/K Matrices <==

    J tasked:                  Yes
    K tasked:                   No
    wK tasked:                  No
    OpenMP threads:             16
    Integrals threads:          16
    Memory [MiB]:              524
    Algorithm:                Disk
    Integral Cache:           NONE
    Schwarz Cutoff:          1E-12
    Fitting Condition:       1E-10

   => Auxiliary Basis Set <=

  Basis Set: (DEF2-MTZVPP AUX)
    Blend: DEF2-UNIVERSAL-JKFIT
    Number of shells: 411
    Number of basis functions: 1243
    Number of Cartesian functions: 1475
    Spherical Harmonics?: true
    Max angular momentum: 4

  Cached 3.9% of DFT collocation blocks in 0.231 [GiB].

  Minimum eigenvalue in the overlap matrix is 2.6677827748E-05.
  Reciprocal condition number of the overlap matrix is 2.7916003991E-06.
    Using symmetric orthogonalization.

  ==> Pre-Iterations <==

  SCF Guess: Superposition of Atomic Densities via on-the-fly atomic UHF (no occupation information).

   -------------------------
    Irrep   Nso     Nmo    
   -------------------------
     A        340     340 
   -------------------------
    Total     340     340
   -------------------------

  ==> Iterations <==

                           Total Energy        Delta E     RMS |[F,P]|

   @DF-RKS iter SAD:  -778.06741032667867   -7.78067e+02   0.00000e+00 
   @DF-RKS iter   1:  -711.76192952887311    6.63055e+01   2.09780e-02 DIIS/ADIIS
   @DF-RKS iter   2:  -607.01223004461929    1.04750e+02   4.58009e-02 DIIS/ADIIS
   @DF-RKS iter   3:  -749.29065269430646   -1.42278e+02   1.92004e-02 DIIS/ADIIS
   @DF-RKS iter   4:  -706.09085967504757    4.31998e+01   2.55628e-02 DIIS/ADIIS
   @DF-RKS iter   5:  -765.09462413809194   -5.90038e+01   6.73761e-03 DIIS/ADIIS
   @DF-RKS iter   6:  -751.71202862005316    1.33826e+01   1.43401e-02 DIIS/ADIIS
   @DF-RKS iter   7:  -768.24801805284028   -1.65360e+01   3.72114e-03 DIIS/ADIIS
   @DF-RKS iter   8:  -768.67404656156032   -4.26029e-01   2.45282e-03 DIIS/ADIIS
   @DF-RKS iter   9:  -768.90760135454366   -2.33555e-01   7.79680e-04 DIIS/ADIIS
   @DF-RKS iter  10:  -768.93173720199059   -2.41358e-02   4.72622e-04 DIIS/ADIIS
   @DF-RKS iter  11:  -768.94056832758599   -8.83113e-03   1.60457e-04 DIIS/ADIIS
   @DF-RKS iter  12:  -768.94149694331065   -9.28616e-04   9.58316e-05 DIIS
   @DF-RKS iter  13:  -768.94197296481366   -4.76022e-04   2.59624e-05 DIIS
   @DF-RKS iter  14:  -768.94200194466441   -2.89799e-05   1.29179e-05 DIIS
   @DF-RKS iter  15:  -768.94201145932402   -9.51466e-06   2.40415e-06 DIIS
   @DF-RKS iter  16:  -768.94201175184162   -2.92518e-07   6.75184e-07 DIIS
  Energy and wave function converged.


  ==> Post-Iterations <==

   Electrons on quadrature grid:
      Ntotal   =  105.9999780807 ; deviation = -2.192e-05 

    Orbital Energies [Eh]
    ---------------------

    Doubly Occupied:                                                      

       1A    -24.521220     2A    -24.518929     3A    -19.022423  
       4A    -14.190335     5A    -14.188474     6A    -10.152645  
       7A    -10.144780     8A    -10.139936     9A    -10.121783  
      10A    -10.091565    11A    -10.090482    12A    -10.080788  
      13A    -10.065432    14A    -10.065021    15A    -10.060202  
      16A     -1.215557    17A     -1.202084    18A     -1.077944  
      19A     -0.959837    20A     -0.890542    21A     -0.855240  
      22A     -0.766944    23A     -0.747926    24A     -0.728475  
      25A     -0.657716    26A     -0.642576    27A     -0.621993  
      28A     -0.595904    29A     -0.553149    30A     -0.532347  
      31A     -0.517577    32A     -0.507387    33A     -0.495897  
      34A     -0.483975    35A     -0.465695    36A     -0.440029  
      37A     -0.435856    38A     -0.429904    39A     -0.429411  
      40A     -0.420965    41A     -0.405363    42A     -0.397149  
      43A     -0.378498    44A     -0.375370    45A     -0.349281  
      46A     -0.341445    47A     -0.338134    48A     -0.314938  
      49A     -0.297617    50A     -0.258429    51A     -0.246039  
      52A     -0.239469    53A     -0.231229  

    Virtual:                                                              

      54A     -0.090191    55A     -0.055746    56A     -0.052593  
      57A     -0.037715    58A      0.018386    59A      0.070470  
      60A      0.080085    61A      0.088608    62A      0.101769  
      63A      0.104984    64A      0.115060    65A      0.123476  
      66A      0.129239    67A      0.132570    68A      0.140410  
      69A      0.150822    70A      0.158071    71A      0.167544  
      72A      0.177419    73A      0.183384    74A      0.198429  
      75A      0.203290    76A      0.209001    77A      0.218987  
      78A      0.222088    79A      0.226105    80A      0.232964  
      81A      0.240145    82A      0.243493    83A      0.261076  
      84A      0.266955    85A      0.273318    86A      0.283290  
      87A      0.288027    88A      0.291458    89A      0.300484  
      90A      0.302719    91A      0.313125    92A      0.318501  
      93A      0.323532    94A      0.333082    95A      0.335496  
      96A      0.337919    97A      0.352036    98A      0.359166  
      99A      0.369076   100A      0.378034   101A      0.386670  
     102A      0.404686   103A      0.413511   104A      0.431516  
     105A      0.433541   106A      0.446369   107A      0.452023  
     108A      0.457892   109A      0.463585   110A      0.475602  
     111A      0.489875   112A      0.500602   113A      0.514342  
     114A      0.520809   115A      0.530483   116A      0.540284  
     117A      0.551080   118A      0.557394   119A      0.558739  
     120A      0.569889   121A      0.577169   122A      0.583106  
     123A      0.591970   124A      0.602449   125A      0.616560  
     126A      0.623528   127A      0.635101   128A      0.640805  
     129A      0.650821   130A      0.658069   131A      0.663186  
     132A      0.678588   133A      0.687283   134A      0.703270  
     135A      0.709773   136A      0.715251   137A      0.725262  
     138A      0.733541   139A      0.739585   140A      0.759240  
     141A      0.779195   142A      0.782913   143A      0.798919  
     144A      0.806759   145A      0.819736   146A      0.840614  
     147A      0.854516   148A      0.858983   149A      0.883235  
     150A      0.899744   151A      0.902469   152A      0.915362  
     153A      0.925184   154A      0.951087   155A      0.952169  
     156A      0.963724   157A      1.002113   158A      1.015000  
     159A      1.030528   160A      1.054982   161A      1.060523  
     162A      1.070509   163A      1.098198   164A      1.114340  
     165A      1.127283   166A      1.172095   167A      1.210854  
     168A      1.237204   169A      1.245353   170A      1.262102  
     171A      1.274432   172A      1.284886   173A      1.289834  
     174A      1.327600   175A      1.330784   176A      1.352958  
     177A      1.358711   178A      1.360930   179A      1.376412  
     180A      1.382472   181A      1.385052   182A      1.411706  
     183A      1.414948   184A      1.422248   185A      1.432587  
     186A      1.436182   187A      1.451457   188A      1.463701  
     189A      1.485198   190A      1.488333   191A      1.497609  
     192A      1.505993   193A      1.512784   194A      1.523555  
     195A      1.527746   196A      1.540399   197A      1.566743  
     198A      1.571690   199A      1.589298   200A      1.610556  
     201A      1.626623   202A      1.644789   203A      1.656783  
     204A      1.704588   205A      1.707287   206A      1.719874  
     207A      1.730608   208A      1.746836   209A      1.786602  
     210A      1.797686   211A      1.817006   212A      1.836568  
     213A      1.851620   214A      1.879794   215A      1.890916  
     216A      1.905107   217A      1.937225   218A      1.955801  
     219A      1.992619   220A      2.018183   221A      2.032439  
     222A      2.058266   223A      2.062325   224A      2.065849  
     225A      2.098796   226A      2.107560   227A      2.150039  
     228A      2.155991   229A      2.168672   230A      2.184053  
     231A      2.186750   232A      2.206567   233A      2.211829  
     234A      2.216894   235A      2.219421   236A      2.229712  
     237A      2.255680   238A      2.260099   239A      2.273348  
     240A      2.278734   241A      2.290026   242A      2.308087  
     243A      2.316259   244A      2.322471   245A      2.343784  
     246A      2.347087   247A      2.354002   248A      2.375311  
     249A      2.390200   250A      2.413086   251A      2.417712  
     252A      2.441073   253A      2.459144   254A      2.472951  
     255A      2.485202   256A      2.491029   257A      2.501158  
     258A      2.521084   259A      2.548503   260A      2.555359  
     261A      2.558682   262A      2.579353   263A      2.620278  
     264A      2.636273   265A      2.649938   266A      2.661603  
     267A      2.678461   268A      2.697865   269A      2.730795  
     270A      2.762990   271A      2.771371   272A      2.832857  
     273A      2.843746   274A      2.857531   275A      2.874221  
     276A      2.892423   277A      2.921633   278A      2.941465  
     279A      2.981558   280A      3.014598   281A      3.027357  
     282A      3.072091   283A      3.074048   284A      3.089628  
     285A      3.112936   286A      3.143420   287A      3.185793  
     288A      3.221258   289A      3.225804   290A      3.254615  
     291A      3.277469   292A      3.282090   293A      3.287347  
     294A      3.302253   295A      3.308789   296A      3.325468  
     297A      3.337261   298A      3.362352   299A      3.365965  
     300A      3.373708   301A      3.379821   302A      3.391979  
     303A      3.410144   304A      3.440868   305A      3.456211  
     306A      3.481006   307A      3.511782   308A      3.521770  
     309A      3.565230   310A      3.579223   311A      3.621238  
     312A      3.630518   313A      3.678012   314A      3.753504  
     315A      3.810453   316A      3.903371   317A      3.922602  
     318A      3.954828   319A      3.997135   320A      4.141590  
     321A      4.208044   322A      4.226200   323A      4.290652  
     324A      4.328348   325A      4.684762   326A     21.438968  
     327A     21.813339   328A     21.914852   329A     21.959273  
     330A     22.071074   331A     22.147452   332A     22.160161  
     333A     22.186308   334A     22.289003   335A     22.350595  
     336A     31.808377   337A     31.996389   338A     43.827393  
     339A     57.034983   340A     57.236210  

    Final Occupation by Irrep:
              A 
    DOCC [    53 ]
    NA   [    53 ]
    NB   [    53 ]

  @DF-RKS Final Energy:  -768.94201175184162

   => Energetics <=

    Nuclear Repulsion Energy =            920.1137277272183610
    One-Electron Energy =               -2876.9344477803201698
    Two-Electron Energy =                1287.4436797067335192
    DFT Exchange-Correlation Energy =     -99.5597262201887219
    Empirical Dispersion Energy =           0.0032868564536373
    VV10 Nonlocal Energy =                  0.0000000000000000
    DD Solvation Energy =                 -0.0085320417381298
    Total Energy =                       -768.9420117518416191

Computation Completed


Properties will be evaluated at   0.000000,   0.000000,   0.000000 [a0]

Properties computed using the SCF density matrix


 Multipole Moments:

 ------------------------------------------------------------------------------------
     Multipole            Electronic (a.u.)      Nuclear  (a.u.)        Total (a.u.)
 ------------------------------------------------------------------------------------

 L = 1.  Multiply by 2.5417464519 to convert [e a0] to [Debye]
 Dipole X            :        -80.6613884           80.6172283           -0.0441601
 Dipole Y            :        -48.7896487           48.1065690           -0.6830797
 Dipole Z            :         40.7859946          -40.6890160            0.0969786
 Magnitude           :                                                    0.6913413

 ------------------------------------------------------------------------------------

*** tstop() called on master at Fri May 15 19:48:03 2026
Module time:
	user time   =     662.68 seconds =      11.04 minutes
	system time =      19.84 seconds =       0.33 minutes
	total time  =         46 seconds =       0.77 minutes
Total time:
	user time   =     662.68 seconds =      11.04 minutes
	system time =      19.84 seconds =       0.33 minutes
	total time  =         46 seconds =       0.77 minutes
